V -t * -v 1.0a5 -a 0
A -t * -n 1 -p 0 -o 0x7fffffff -c 30 -a 1
A -t * -h 1 -m 1073741823 -s 0
c -t * -i 1 -n Blue
c -t * -i 2 -n Red
n -t * -a 0 -s 0 -S UP -v circle -c black -i black
n -t * -a 1 -s 1 -S UP -v circle -c black -i black
n -t * -a 2 -s 2 -S UP -v circle -c black -i black
n -t * -a 3 -s 3 -S UP -v circle -c black -i black
l -t * -s 0 -d 2 -S UP -r 2000000 -D 0.01 -c black -o right-down
l -t * -s 1 -d 2 -S UP -r 2000000 -D 0.01 -c black -o right-up
l -t * -s 2 -d 3 -S UP -r 1000000 -D 0.02 -c black -o right
q -t * -s 3 -d 2 -a 0.5
q -t * -s 2 -d 3 -a 0.5
+ -t 0.1 -s 1 -d 2 -p tcp -e 40 -c 2 -i 0 -a 2 -x {1.0 3.1 0 ------- null}
- -t 0.1 -s 1 -d 2 -p tcp -e 40 -c 2 -i 0 -a 2 -x {1.0 3.1 0 ------- null}
h -t 0.1 -s 1 -d 2 -p tcp -e 40 -c 2 -i 0 -a 2 -x {1.0 3.1 -1 ------- null}
r -t 0.11016 -s 1 -d 2 -p tcp -e 40 -c 2 -i 0 -a 2 -x {1.0 3.1 0 ------- null}
+ -t 0.11016 -s 2 -d 3 -p tcp -e 40 -c 2 -i 0 -a 2 -x {1.0 3.1 0 ------- null}
- -t 0.11016 -s 2 -d 3 -p tcp -e 40 -c 2 -i 0 -a 2 -x {1.0 3.1 0 ------- null}
h -t 0.11016 -s 2 -d 3 -p tcp -e 40 -c 2 -i 0 -a 2 -x {1.0 3.1 -1 ------- null}
r -t 0.13048 -s 2 -d 3 -p tcp -e 40 -c 2 -i 0 -a 2 -x {1.0 3.1 0 ------- null}
+ -t 0.13048 -s 3 -d 2 -p ack -e 40 -c 2 -i 1 -a 2 -x {3.1 1.0 0 ------- null}
- -t 0.13048 -s 3 -d 2 -p ack -e 40 -c 2 -i 1 -a 2 -x {3.1 1.0 0 ------- null}
h -t 0.13048 -s 3 -d 2 -p ack -e 40 -c 2 -i 1 -a 2 -x {3.1 1.0 -1 ------- null}
r -t 0.1508 -s 3 -d 2 -p ack -e 40 -c 2 -i 1 -a 2 -x {3.1 1.0 0 ------- null}
+ -t 0.1508 -s 2 -d 1 -p ack -e 40 -c 2 -i 1 -a 2 -x {3.1 1.0 0 ------- null}
- -t 0.1508 -s 2 -d 1 -p ack -e 40 -c 2 -i 1 -a 2 -x {3.1 1.0 0 ------- null}
h -t 0.1508 -s 2 -d 1 -p ack -e 40 -c 2 -i 1 -a 2 -x {3.1 1.0 -1 ------- null}
r -t 0.16096 -s 2 -d 1 -p ack -e 40 -c 2 -i 1 -a 2 -x {3.1 1.0 0 ------- null}
+ -t 0.16096 -s 1 -d 2 -p tcp -e 1040 -c 2 -i 2 -a 2 -x {1.0 3.1 1 ------- null}
- -t 0.16096 -s 1 -d 2 -p tcp -e 1040 -c 2 -i 2 -a 2 -x {1.0 3.1 1 ------- null}
h -t 0.16096 -s 1 -d 2 -p tcp -e 1040 -c 2 -i 2 -a 2 -x {1.0 3.1 -1 ------- null}
+ -t 0.16096 -s 1 -d 2 -p tcp -e 1040 -c 2 -i 3 -a 2 -x {1.0 3.1 2 ------- null}
- -t 0.16512 -s 1 -d 2 -p tcp -e 1040 -c 2 -i 3 -a 2 -x {1.0 3.1 2 ------- null}
h -t 0.16512 -s 1 -d 2 -p tcp -e 1040 -c 2 -i 3 -a 2 -x {1.0 3.1 -1 ------- null}
r -t 0.17512 -s 1 -d 2 -p tcp -e 1040 -c 2 -i 2 -a 2 -x {1.0 3.1 1 ------- null}
+ -t 0.17512 -s 2 -d 3 -p tcp -e 1040 -c 2 -i 2 -a 2 -x {1.0 3.1 1 ------- null}
- -t 0.17512 -s 2 -d 3 -p tcp -e 1040 -c 2 -i 2 -a 2 -x {1.0 3.1 1 ------- null}
h -t 0.17512 -s 2 -d 3 -p tcp -e 1040 -c 2 -i 2 -a 2 -x {1.0 3.1 -1 ------- null}
r -t 0.17928 -s 1 -d 2 -p tcp -e 1040 -c 2 -i 3 -a 2 -x {1.0 3.1 2 ------- null}
+ -t 0.17928 -s 2 -d 3 -p tcp -e 1040 -c 2 -i 3 -a 2 -x {1.0 3.1 2 ------- null}
- -t 0.18344 -s 2 -d 3 -p tcp -e 1040 -c 2 -i 3 -a 2 -x {1.0 3.1 2 ------- null}
h -t 0.18344 -s 2 -d 3 -p tcp -e 1040 -c 2 -i 3 -a 2 -x {1.0 3.1 -1 ------- null}
r -t 0.20344 -s 2 -d 3 -p tcp -e 1040 -c 2 -i 2 -a 2 -x {1.0 3.1 1 ------- null}
+ -t 0.20344 -s 3 -d 2 -p ack -e 40 -c 2 -i 4 -a 2 -x {3.1 1.0 1 ------- null}
- -t 0.20344 -s 3 -d 2 -p ack -e 40 -c 2 -i 4 -a 2 -x {3.1 1.0 1 ------- null}
h -t 0.20344 -s 3 -d 2 -p ack -e 40 -c 2 -i 4 -a 2 -x {3.1 1.0 -1 ------- null}
r -t 0.21176 -s 2 -d 3 -p tcp -e 1040 -c 2 -i 3 -a 2 -x {1.0 3.1 2 ------- null}
+ -t 0.21176 -s 3 -d 2 -p ack -e 40 -c 2 -i 5 -a 2 -x {3.1 1.0 2 ------- null}
- -t 0.21176 -s 3 -d 2 -p ack -e 40 -c 2 -i 5 -a 2 -x {3.1 1.0 2 ------- null}
h -t 0.21176 -s 3 -d 2 -p ack -e 40 -c 2 -i 5 -a 2 -x {3.1 1.0 -1 ------- null}
r -t 0.22376 -s 3 -d 2 -p ack -e 40 -c 2 -i 4 -a 2 -x {3.1 1.0 1 ------- null}
+ -t 0.22376 -s 2 -d 1 -p ack -e 40 -c 2 -i 4 -a 2 -x {3.1 1.0 1 ------- null}
- -t 0.22376 -s 2 -d 1 -p ack -e 40 -c 2 -i 4 -a 2 -x {3.1 1.0 1 ------- null}
h -t 0.22376 -s 2 -d 1 -p ack -e 40 -c 2 -i 4 -a 2 -x {3.1 1.0 -1 ------- null}
r -t 0.23208 -s 3 -d 2 -p ack -e 40 -c 2 -i 5 -a 2 -x {3.1 1.0 2 ------- null}
+ -t 0.23208 -s 2 -d 1 -p ack -e 40 -c 2 -i 5 -a 2 -x {3.1 1.0 2 ------- null}
- -t 0.23208 -s 2 -d 1 -p ack -e 40 -c 2 -i 5 -a 2 -x {3.1 1.0 2 ------- null}
h -t 0.23208 -s 2 -d 1 -p ack -e 40 -c 2 -i 5 -a 2 -x {3.1 1.0 -1 ------- null}
r -t 0.23392 -s 2 -d 1 -p ack -e 40 -c 2 -i 4 -a 2 -x {3.1 1.0 1 ------- null}
+ -t 0.23392 -s 1 -d 2 -p tcp -e 1040 -c 2 -i 6 -a 2 -x {1.0 3.1 3 ------- null}
- -t 0.23392 -s 1 -d 2 -p tcp -e 1040 -c 2 -i 6 -a 2 -x {1.0 3.1 3 ------- null}
h -t 0.23392 -s 1 -d 2 -p tcp -e 1040 -c 2 -i 6 -a 2 -x {1.0 3.1 -1 ------- null}
+ -t 0.23392 -s 1 -d 2 -p tcp -e 1040 -c 2 -i 7 -a 2 -x {1.0 3.1 4 ------- null}
- -t 0.23808 -s 1 -d 2 -p tcp -e 1040 -c 2 -i 7 -a 2 -x {1.0 3.1 4 ------- null}
h -t 0.23808 -s 1 -d 2 -p tcp -e 1040 -c 2 -i 7 -a 2 -x {1.0 3.1 -1 ------- null}
r -t 0.24224 -s 2 -d 1 -p ack -e 40 -c 2 -i 5 -a 2 -x {3.1 1.0 2 ------- null}
+ -t 0.24224 -s 1 -d 2 -p tcp -e 1040 -c 2 -i 8 -a 2 -x {1.0 3.1 5 ------- null}
+ -t 0.24224 -s 1 -d 2 -p tcp -e 1040 -c 2 -i 9 -a 2 -x {1.0 3.1 6 ------- null}
- -t 0.24224 -s 1 -d 2 -p tcp -e 1040 -c 2 -i 8 -a 2 -x {1.0 3.1 5 ------- null}
h -t 0.24224 -s 1 -d 2 -p tcp -e 1040 -c 2 -i 8 -a 2 -x {1.0 3.1 -1 ------- null}
- -t 0.2464 -s 1 -d 2 -p tcp -e 1040 -c 2 -i 9 -a 2 -x {1.0 3.1 6 ------- null}
h -t 0.2464 -s 1 -d 2 -p tcp -e 1040 -c 2 -i 9 -a 2 -x {1.0 3.1 -1 ------- null}
r -t 0.24808 -s 1 -d 2 -p tcp -e 1040 -c 2 -i 6 -a 2 -x {1.0 3.1 3 ------- null}
+ -t 0.24808 -s 2 -d 3 -p tcp -e 1040 -c 2 -i 6 -a 2 -x {1.0 3.1 3 ------- null}
- -t 0.24808 -s 2 -d 3 -p tcp -e 1040 -c 2 -i 6 -a 2 -x {1.0 3.1 3 ------- null}
h -t 0.24808 -s 2 -d 3 -p tcp -e 1040 -c 2 -i 6 -a 2 -x {1.0 3.1 -1 ------- null}
r -t 0.25224 -s 1 -d 2 -p tcp -e 1040 -c 2 -i 7 -a 2 -x {1.0 3.1 4 ------- null}
+ -t 0.25224 -s 2 -d 3 -p tcp -e 1040 -c 2 -i 7 -a 2 -x {1.0 3.1 4 ------- null}
r -t 0.2564 -s 1 -d 2 -p tcp -e 1040 -c 2 -i 8 -a 2 -x {1.0 3.1 5 ------- null}
+ -t 0.2564 -s 2 -d 3 -p tcp -e 1040 -c 2 -i 8 -a 2 -x {1.0 3.1 5 ------- null}
- -t 0.2564 -s 2 -d 3 -p tcp -e 1040 -c 2 -i 7 -a 2 -x {1.0 3.1 4 ------- null}
h -t 0.2564 -s 2 -d 3 -p tcp -e 1040 -c 2 -i 7 -a 2 -x {1.0 3.1 -1 ------- null}
r -t 0.26056 -s 1 -d 2 -p tcp -e 1040 -c 2 -i 9 -a 2 -x {1.0 3.1 6 ------- null}
+ -t 0.26056 -s 2 -d 3 -p tcp -e 1040 -c 2 -i 9 -a 2 -x {1.0 3.1 6 ------- null}
- -t 0.26472 -s 2 -d 3 -p tcp -e 1040 -c 2 -i 8 -a 2 -x {1.0 3.1 5 ------- null}
h -t 0.26472 -s 2 -d 3 -p tcp -e 1040 -c 2 -i 8 -a 2 -x {1.0 3.1 -1 ------- null}
- -t 0.27304 -s 2 -d 3 -p tcp -e 1040 -c 2 -i 9 -a 2 -x {1.0 3.1 6 ------- null}
h -t 0.27304 -s 2 -d 3 -p tcp -e 1040 -c 2 -i 9 -a 2 -x {1.0 3.1 -1 ------- null}
r -t 0.2764 -s 2 -d 3 -p tcp -e 1040 -c 2 -i 6 -a 2 -x {1.0 3.1 3 ------- null}
+ -t 0.2764 -s 3 -d 2 -p ack -e 40 -c 2 -i 10 -a 2 -x {3.1 1.0 3 ------- null}
- -t 0.2764 -s 3 -d 2 -p ack -e 40 -c 2 -i 10 -a 2 -x {3.1 1.0 3 ------- null}
h -t 0.2764 -s 3 -d 2 -p ack -e 40 -c 2 -i 10 -a 2 -x {3.1 1.0 -1 ------- null}
r -t 0.28472 -s 2 -d 3 -p tcp -e 1040 -c 2 -i 7 -a 2 -x {1.0 3.1 4 ------- null}
+ -t 0.28472 -s 3 -d 2 -p ack -e 40 -c 2 -i 11 -a 2 -x {3.1 1.0 4 ------- null}
- -t 0.28472 -s 3 -d 2 -p ack -e 40 -c 2 -i 11 -a 2 -x {3.1 1.0 4 ------- null}
h -t 0.28472 -s 3 -d 2 -p ack -e 40 -c 2 -i 11 -a 2 -x {3.1 1.0 -1 ------- null}
r -t 0.29304 -s 2 -d 3 -p tcp -e 1040 -c 2 -i 8 -a 2 -x {1.0 3.1 5 ------- null}
+ -t 0.29304 -s 3 -d 2 -p ack -e 40 -c 2 -i 12 -a 2 -x {3.1 1.0 5 ------- null}
- -t 0.29304 -s 3 -d 2 -p ack -e 40 -c 2 -i 12 -a 2 -x {3.1 1.0 5 ------- null}
h -t 0.29304 -s 3 -d 2 -p ack -e 40 -c 2 -i 12 -a 2 -x {3.1 1.0 -1 ------- null}
r -t 0.29672 -s 3 -d 2 -p ack -e 40 -c 2 -i 10 -a 2 -x {3.1 1.0 3 ------- null}
+ -t 0.29672 -s 2 -d 1 -p ack -e 40 -c 2 -i 10 -a 2 -x {3.1 1.0 3 ------- null}
- -t 0.29672 -s 2 -d 1 -p ack -e 40 -c 2 -i 10 -a 2 -x {3.1 1.0 3 ------- null}
h -t 0.29672 -s 2 -d 1 -p ack -e 40 -c 2 -i 10 -a 2 -x {3.1 1.0 -1 ------- null}
r -t 0.30136 -s 2 -d 3 -p tcp -e 1040 -c 2 -i 9 -a 2 -x {1.0 3.1 6 ------- null}
+ -t 0.30136 -s 3 -d 2 -p ack -e 40 -c 2 -i 13 -a 2 -x {3.1 1.0 6 ------- null}
- -t 0.30136 -s 3 -d 2 -p ack -e 40 -c 2 -i 13 -a 2 -x {3.1 1.0 6 ------- null}
h -t 0.30136 -s 3 -d 2 -p ack -e 40 -c 2 -i 13 -a 2 -x {3.1 1.0 -1 ------- null}
r -t 0.30504 -s 3 -d 2 -p ack -e 40 -c 2 -i 11 -a 2 -x {3.1 1.0 4 ------- null}
+ -t 0.30504 -s 2 -d 1 -p ack -e 40 -c 2 -i 11 -a 2 -x {3.1 1.0 4 ------- null}
- -t 0.30504 -s 2 -d 1 -p ack -e 40 -c 2 -i 11 -a 2 -x {3.1 1.0 4 ------- null}
h -t 0.30504 -s 2 -d 1 -p ack -e 40 -c 2 -i 11 -a 2 -x {3.1 1.0 -1 ------- null}
r -t 0.30688 -s 2 -d 1 -p ack -e 40 -c 2 -i 10 -a 2 -x {3.1 1.0 3 ------- null}
+ -t 0.30688 -s 1 -d 2 -p tcp -e 1040 -c 2 -i 14 -a 2 -x {1.0 3.1 7 ------- null}
- -t 0.30688 -s 1 -d 2 -p tcp -e 1040 -c 2 -i 14 -a 2 -x {1.0 3.1 7 ------- null}
h -t 0.30688 -s 1 -d 2 -p tcp -e 1040 -c 2 -i 14 -a 2 -x {1.0 3.1 -1 ------- null}
+ -t 0.30688 -s 1 -d 2 -p tcp -e 1040 -c 2 -i 15 -a 2 -x {1.0 3.1 8 ------- null}
- -t 0.31104 -s 1 -d 2 -p tcp -e 1040 -c 2 -i 15 -a 2 -x {1.0 3.1 8 ------- null}
h -t 0.31104 -s 1 -d 2 -p tcp -e 1040 -c 2 -i 15 -a 2 -x {1.0 3.1 -1 ------- null}
r -t 0.31336 -s 3 -d 2 -p ack -e 40 -c 2 -i 12 -a 2 -x {3.1 1.0 5 ------- null}
+ -t 0.31336 -s 2 -d 1 -p ack -e 40 -c 2 -i 12 -a 2 -x {3.1 1.0 5 ------- null}
- -t 0.31336 -s 2 -d 1 -p ack -e 40 -c 2 -i 12 -a 2 -x {3.1 1.0 5 ------- null}
h -t 0.31336 -s 2 -d 1 -p ack -e 40 -c 2 -i 12 -a 2 -x {3.1 1.0 -1 ------- null}
r -t 0.3152 -s 2 -d 1 -p ack -e 40 -c 2 -i 11 -a 2 -x {3.1 1.0 4 ------- null}
+ -t 0.3152 -s 1 -d 2 -p tcp -e 1040 -c 2 -i 16 -a 2 -x {1.0 3.1 9 ------- null}
+ -t 0.3152 -s 1 -d 2 -p tcp -e 1040 -c 2 -i 17 -a 2 -x {1.0 3.1 10 ------- null}
- -t 0.3152 -s 1 -d 2 -p tcp -e 1040 -c 2 -i 16 -a 2 -x {1.0 3.1 9 ------- null}
h -t 0.3152 -s 1 -d 2 -p tcp -e 1040 -c 2 -i 16 -a 2 -x {1.0 3.1 -1 ------- null}
- -t 0.31936 -s 1 -d 2 -p tcp -e 1040 -c 2 -i 17 -a 2 -x {1.0 3.1 10 ------- null}
h -t 0.31936 -s 1 -d 2 -p tcp -e 1040 -c 2 -i 17 -a 2 -x {1.0 3.1 -1 ------- null}
r -t 0.32104 -s 1 -d 2 -p tcp -e 1040 -c 2 -i 14 -a 2 -x {1.0 3.1 7 ------- null}
+ -t 0.32104 -s 2 -d 3 -p tcp -e 1040 -c 2 -i 14 -a 2 -x {1.0 3.1 7 ------- null}
- -t 0.32104 -s 2 -d 3 -p tcp -e 1040 -c 2 -i 14 -a 2 -x {1.0 3.1 7 ------- null}
h -t 0.32104 -s 2 -d 3 -p tcp -e 1040 -c 2 -i 14 -a 2 -x {1.0 3.1 -1 ------- null}
r -t 0.32168 -s 3 -d 2 -p ack -e 40 -c 2 -i 13 -a 2 -x {3.1 1.0 6 ------- null}
+ -t 0.32168 -s 2 -d 1 -p ack -e 40 -c 2 -i 13 -a 2 -x {3.1 1.0 6 ------- null}
- -t 0.32168 -s 2 -d 1 -p ack -e 40 -c 2 -i 13 -a 2 -x {3.1 1.0 6 ------- null}
h -t 0.32168 -s 2 -d 1 -p ack -e 40 -c 2 -i 13 -a 2 -x {3.1 1.0 -1 ------- null}
r -t 0.32352 -s 2 -d 1 -p ack -e 40 -c 2 -i 12 -a 2 -x {3.1 1.0 5 ------- null}
+ -t 0.32352 -s 1 -d 2 -p tcp -e 1040 -c 2 -i 18 -a 2 -x {1.0 3.1 11 ------- null}
+ -t 0.32352 -s 1 -d 2 -p tcp -e 1040 -c 2 -i 19 -a 2 -x {1.0 3.1 12 ------- null}
- -t 0.32352 -s 1 -d 2 -p tcp -e 1040 -c 2 -i 18 -a 2 -x {1.0 3.1 11 ------- null}
h -t 0.32352 -s 1 -d 2 -p tcp -e 1040 -c 2 -i 18 -a 2 -x {1.0 3.1 -1 ------- null}
r -t 0.3252 -s 1 -d 2 -p tcp -e 1040 -c 2 -i 15 -a 2 -x {1.0 3.1 8 ------- null}
+ -t 0.3252 -s 2 -d 3 -p tcp -e 1040 -c 2 -i 15 -a 2 -x {1.0 3.1 8 ------- null}
- -t 0.32768 -s 1 -d 2 -p tcp -e 1040 -c 2 -i 19 -a 2 -x {1.0 3.1 12 ------- null}
h -t 0.32768 -s 1 -d 2 -p tcp -e 1040 -c 2 -i 19 -a 2 -x {1.0 3.1 -1 ------- null}
r -t 0.32936 -s 1 -d 2 -p tcp -e 1040 -c 2 -i 16 -a 2 -x {1.0 3.1 9 ------- null}
+ -t 0.32936 -s 2 -d 3 -p tcp -e 1040 -c 2 -i 16 -a 2 -x {1.0 3.1 9 ------- null}
- -t 0.32936 -s 2 -d 3 -p tcp -e 1040 -c 2 -i 15 -a 2 -x {1.0 3.1 8 ------- null}
h -t 0.32936 -s 2 -d 3 -p tcp -e 1040 -c 2 -i 15 -a 2 -x {1.0 3.1 -1 ------- null}
r -t 0.33184 -s 2 -d 1 -p ack -e 40 -c 2 -i 13 -a 2 -x {3.1 1.0 6 ------- null}
+ -t 0.33184 -s 1 -d 2 -p tcp -e 1040 -c 2 -i 20 -a 2 -x {1.0 3.1 13 ------- null}
+ -t 0.33184 -s 1 -d 2 -p tcp -e 1040 -c 2 -i 21 -a 2 -x {1.0 3.1 14 ------- null}
- -t 0.33184 -s 1 -d 2 -p tcp -e 1040 -c 2 -i 20 -a 2 -x {1.0 3.1 13 ------- null}
h -t 0.33184 -s 1 -d 2 -p tcp -e 1040 -c 2 -i 20 -a 2 -x {1.0 3.1 -1 ------- null}
r -t 0.33352 -s 1 -d 2 -p tcp -e 1040 -c 2 -i 17 -a 2 -x {1.0 3.1 10 ------- null}
+ -t 0.33352 -s 2 -d 3 -p tcp -e 1040 -c 2 -i 17 -a 2 -x {1.0 3.1 10 ------- null}
- -t 0.336 -s 1 -d 2 -p tcp -e 1040 -c 2 -i 21 -a 2 -x {1.0 3.1 14 ------- null}
h -t 0.336 -s 1 -d 2 -p tcp -e 1040 -c 2 -i 21 -a 2 -x {1.0 3.1 -1 ------- null}
r -t 0.33768 -s 1 -d 2 -p tcp -e 1040 -c 2 -i 18 -a 2 -x {1.0 3.1 11 ------- null}
+ -t 0.33768 -s 2 -d 3 -p tcp -e 1040 -c 2 -i 18 -a 2 -x {1.0 3.1 11 ------- null}
- -t 0.33768 -s 2 -d 3 -p tcp -e 1040 -c 2 -i 16 -a 2 -x {1.0 3.1 9 ------- null}
h -t 0.33768 -s 2 -d 3 -p tcp -e 1040 -c 2 -i 16 -a 2 -x {1.0 3.1 -1 ------- null}
r -t 0.34184 -s 1 -d 2 -p tcp -e 1040 -c 2 -i 19 -a 2 -x {1.0 3.1 12 ------- null}
+ -t 0.34184 -s 2 -d 3 -p tcp -e 1040 -c 2 -i 19 -a 2 -x {1.0 3.1 12 ------- null}
r -t 0.346 -s 1 -d 2 -p tcp -e 1040 -c 2 -i 20 -a 2 -x {1.0 3.1 13 ------- null}
+ -t 0.346 -s 2 -d 3 -p tcp -e 1040 -c 2 -i 20 -a 2 -x {1.0 3.1 13 ------- null}
- -t 0.346 -s 2 -d 3 -p tcp -e 1040 -c 2 -i 17 -a 2 -x {1.0 3.1 10 ------- null}
h -t 0.346 -s 2 -d 3 -p tcp -e 1040 -c 2 -i 17 -a 2 -x {1.0 3.1 -1 ------- null}
r -t 0.34936 -s 2 -d 3 -p tcp -e 1040 -c 2 -i 14 -a 2 -x {1.0 3.1 7 ------- null}
+ -t 0.34936 -s 3 -d 2 -p ack -e 40 -c 2 -i 22 -a 2 -x {3.1 1.0 7 ------- null}
- -t 0.34936 -s 3 -d 2 -p ack -e 40 -c 2 -i 22 -a 2 -x {3.1 1.0 7 ------- null}
h -t 0.34936 -s 3 -d 2 -p ack -e 40 -c 2 -i 22 -a 2 -x {3.1 1.0 -1 ------- null}
r -t 0.35016 -s 1 -d 2 -p tcp -e 1040 -c 2 -i 21 -a 2 -x {1.0 3.1 14 ------- null}
+ -t 0.35016 -s 2 -d 3 -p tcp -e 1040 -c 2 -i 21 -a 2 -x {1.0 3.1 14 ------- null}
- -t 0.35432 -s 2 -d 3 -p tcp -e 1040 -c 2 -i 18 -a 2 -x {1.0 3.1 11 ------- null}
h -t 0.35432 -s 2 -d 3 -p tcp -e 1040 -c 2 -i 18 -a 2 -x {1.0 3.1 -1 ------- null}
r -t 0.35768 -s 2 -d 3 -p tcp -e 1040 -c 2 -i 15 -a 2 -x {1.0 3.1 8 ------- null}
+ -t 0.35768 -s 3 -d 2 -p ack -e 40 -c 2 -i 23 -a 2 -x {3.1 1.0 8 ------- null}
- -t 0.35768 -s 3 -d 2 -p ack -e 40 -c 2 -i 23 -a 2 -x {3.1 1.0 8 ------- null}
h -t 0.35768 -s 3 -d 2 -p ack -e 40 -c 2 -i 23 -a 2 -x {3.1 1.0 -1 ------- null}
- -t 0.36264 -s 2 -d 3 -p tcp -e 1040 -c 2 -i 19 -a 2 -x {1.0 3.1 12 ------- null}
h -t 0.36264 -s 2 -d 3 -p tcp -e 1040 -c 2 -i 19 -a 2 -x {1.0 3.1 -1 ------- null}
r -t 0.366 -s 2 -d 3 -p tcp -e 1040 -c 2 -i 16 -a 2 -x {1.0 3.1 9 ------- null}
+ -t 0.366 -s 3 -d 2 -p ack -e 40 -c 2 -i 24 -a 2 -x {3.1 1.0 9 ------- null}
- -t 0.366 -s 3 -d 2 -p ack -e 40 -c 2 -i 24 -a 2 -x {3.1 1.0 9 ------- null}
h -t 0.366 -s 3 -d 2 -p ack -e 40 -c 2 -i 24 -a 2 -x {3.1 1.0 -1 ------- null}
r -t 0.36968 -s 3 -d 2 -p ack -e 40 -c 2 -i 22 -a 2 -x {3.1 1.0 7 ------- null}
+ -t 0.36968 -s 2 -d 1 -p ack -e 40 -c 2 -i 22 -a 2 -x {3.1 1.0 7 ------- null}
- -t 0.36968 -s 2 -d 1 -p ack -e 40 -c 2 -i 22 -a 2 -x {3.1 1.0 7 ------- null}
h -t 0.36968 -s 2 -d 1 -p ack -e 40 -c 2 -i 22 -a 2 -x {3.1 1.0 -1 ------- null}
- -t 0.37096 -s 2 -d 3 -p tcp -e 1040 -c 2 -i 20 -a 2 -x {1.0 3.1 13 ------- null}
h -t 0.37096 -s 2 -d 3 -p tcp -e 1040 -c 2 -i 20 -a 2 -x {1.0 3.1 -1 ------- null}
r -t 0.37432 -s 2 -d 3 -p tcp -e 1040 -c 2 -i 17 -a 2 -x {1.0 3.1 10 ------- null}
+ -t 0.37432 -s 3 -d 2 -p ack -e 40 -c 2 -i 25 -a 2 -x {3.1 1.0 10 ------- null}
- -t 0.37432 -s 3 -d 2 -p ack -e 40 -c 2 -i 25 -a 2 -x {3.1 1.0 10 ------- null}
h -t 0.37432 -s 3 -d 2 -p ack -e 40 -c 2 -i 25 -a 2 -x {3.1 1.0 -1 ------- null}
r -t 0.378 -s 3 -d 2 -p ack -e 40 -c 2 -i 23 -a 2 -x {3.1 1.0 8 ------- null}
+ -t 0.378 -s 2 -d 1 -p ack -e 40 -c 2 -i 23 -a 2 -x {3.1 1.0 8 ------- null}
- -t 0.378 -s 2 -d 1 -p ack -e 40 -c 2 -i 23 -a 2 -x {3.1 1.0 8 ------- null}
h -t 0.378 -s 2 -d 1 -p ack -e 40 -c 2 -i 23 -a 2 -x {3.1 1.0 -1 ------- null}
- -t 0.37928 -s 2 -d 3 -p tcp -e 1040 -c 2 -i 21 -a 2 -x {1.0 3.1 14 ------- null}
h -t 0.37928 -s 2 -d 3 -p tcp -e 1040 -c 2 -i 21 -a 2 -x {1.0 3.1 -1 ------- null}
r -t 0.37984 -s 2 -d 1 -p ack -e 40 -c 2 -i 22 -a 2 -x {3.1 1.0 7 ------- null}
+ -t 0.37984 -s 1 -d 2 -p tcp -e 1040 -c 2 -i 26 -a 2 -x {1.0 3.1 15 ------- null}
- -t 0.37984 -s 1 -d 2 -p tcp -e 1040 -c 2 -i 26 -a 2 -x {1.0 3.1 15 ------- null}
h -t 0.37984 -s 1 -d 2 -p tcp -e 1040 -c 2 -i 26 -a 2 -x {1.0 3.1 -1 ------- null}
+ -t 0.37984 -s 1 -d 2 -p tcp -e 1040 -c 2 -i 27 -a 2 -x {1.0 3.1 16 ------- null}
r -t 0.38264 -s 2 -d 3 -p tcp -e 1040 -c 2 -i 18 -a 2 -x {1.0 3.1 11 ------- null}
+ -t 0.38264 -s 3 -d 2 -p ack -e 40 -c 2 -i 28 -a 2 -x {3.1 1.0 11 ------- null}
- -t 0.38264 -s 3 -d 2 -p ack -e 40 -c 2 -i 28 -a 2 -x {3.1 1.0 11 ------- null}
h -t 0.38264 -s 3 -d 2 -p ack -e 40 -c 2 -i 28 -a 2 -x {3.1 1.0 -1 ------- null}
- -t 0.384 -s 1 -d 2 -p tcp -e 1040 -c 2 -i 27 -a 2 -x {1.0 3.1 16 ------- null}
h -t 0.384 -s 1 -d 2 -p tcp -e 1040 -c 2 -i 27 -a 2 -x {1.0 3.1 -1 ------- null}
r -t 0.38632 -s 3 -d 2 -p ack -e 40 -c 2 -i 24 -a 2 -x {3.1 1.0 9 ------- null}
+ -t 0.38632 -s 2 -d 1 -p ack -e 40 -c 2 -i 24 -a 2 -x {3.1 1.0 9 ------- null}
- -t 0.38632 -s 2 -d 1 -p ack -e 40 -c 2 -i 24 -a 2 -x {3.1 1.0 9 ------- null}
h -t 0.38632 -s 2 -d 1 -p ack -e 40 -c 2 -i 24 -a 2 -x {3.1 1.0 -1 ------- null}
r -t 0.38816 -s 2 -d 1 -p ack -e 40 -c 2 -i 23 -a 2 -x {3.1 1.0 8 ------- null}
+ -t 0.38816 -s 1 -d 2 -p tcp -e 1040 -c 2 -i 29 -a 2 -x {1.0 3.1 17 ------- null}
+ -t 0.38816 -s 1 -d 2 -p tcp -e 1040 -c 2 -i 30 -a 2 -x {1.0 3.1 18 ------- null}
- -t 0.38816 -s 1 -d 2 -p tcp -e 1040 -c 2 -i 29 -a 2 -x {1.0 3.1 17 ------- null}
h -t 0.38816 -s 1 -d 2 -p tcp -e 1040 -c 2 -i 29 -a 2 -x {1.0 3.1 -1 ------- null}
r -t 0.39096 -s 2 -d 3 -p tcp -e 1040 -c 2 -i 19 -a 2 -x {1.0 3.1 12 ------- null}
+ -t 0.39096 -s 3 -d 2 -p ack -e 40 -c 2 -i 31 -a 2 -x {3.1 1.0 12 ------- null}
- -t 0.39096 -s 3 -d 2 -p ack -e 40 -c 2 -i 31 -a 2 -x {3.1 1.0 12 ------- null}
h -t 0.39096 -s 3 -d 2 -p ack -e 40 -c 2 -i 31 -a 2 -x {3.1 1.0 -1 ------- null}
- -t 0.39232 -s 1 -d 2 -p tcp -e 1040 -c 2 -i 30 -a 2 -x {1.0 3.1 18 ------- null}
h -t 0.39232 -s 1 -d 2 -p tcp -e 1040 -c 2 -i 30 -a 2 -x {1.0 3.1 -1 ------- null}
r -t 0.394 -s 1 -d 2 -p tcp -e 1040 -c 2 -i 26 -a 2 -x {1.0 3.1 15 ------- null}
+ -t 0.394 -s 2 -d 3 -p tcp -e 1040 -c 2 -i 26 -a 2 -x {1.0 3.1 15 ------- null}
- -t 0.394 -s 2 -d 3 -p tcp -e 1040 -c 2 -i 26 -a 2 -x {1.0 3.1 15 ------- null}
h -t 0.394 -s 2 -d 3 -p tcp -e 1040 -c 2 -i 26 -a 2 -x {1.0 3.1 -1 ------- null}
r -t 0.39464 -s 3 -d 2 -p ack -e 40 -c 2 -i 25 -a 2 -x {3.1 1.0 10 ------- null}
+ -t 0.39464 -s 2 -d 1 -p ack -e 40 -c 2 -i 25 -a 2 -x {3.1 1.0 10 ------- null}
- -t 0.39464 -s 2 -d 1 -p ack -e 40 -c 2 -i 25 -a 2 -x {3.1 1.0 10 ------- null}
h -t 0.39464 -s 2 -d 1 -p ack -e 40 -c 2 -i 25 -a 2 -x {3.1 1.0 -1 ------- null}
r -t 0.39648 -s 2 -d 1 -p ack -e 40 -c 2 -i 24 -a 2 -x {3.1 1.0 9 ------- null}
+ -t 0.39648 -s 1 -d 2 -p tcp -e 1040 -c 2 -i 32 -a 2 -x {1.0 3.1 19 ------- null}
+ -t 0.39648 -s 1 -d 2 -p tcp -e 1040 -c 2 -i 33 -a 2 -x {1.0 3.1 20 ------- null}
- -t 0.39648 -s 1 -d 2 -p tcp -e 1040 -c 2 -i 32 -a 2 -x {1.0 3.1 19 ------- null}
h -t 0.39648 -s 1 -d 2 -p tcp -e 1040 -c 2 -i 32 -a 2 -x {1.0 3.1 -1 ------- null}
r -t 0.39816 -s 1 -d 2 -p tcp -e 1040 -c 2 -i 27 -a 2 -x {1.0 3.1 16 ------- null}
+ -t 0.39816 -s 2 -d 3 -p tcp -e 1040 -c 2 -i 27 -a 2 -x {1.0 3.1 16 ------- null}
r -t 0.39928 -s 2 -d 3 -p tcp -e 1040 -c 2 -i 20 -a 2 -x {1.0 3.1 13 ------- null}
+ -t 0.39928 -s 3 -d 2 -p ack -e 40 -c 2 -i 34 -a 2 -x {3.1 1.0 13 ------- null}
- -t 0.39928 -s 3 -d 2 -p ack -e 40 -c 2 -i 34 -a 2 -x {3.1 1.0 13 ------- null}
h -t 0.39928 -s 3 -d 2 -p ack -e 40 -c 2 -i 34 -a 2 -x {3.1 1.0 -1 ------- null}
- -t 0.40064 -s 1 -d 2 -p tcp -e 1040 -c 2 -i 33 -a 2 -x {1.0 3.1 20 ------- null}
h -t 0.40064 -s 1 -d 2 -p tcp -e 1040 -c 2 -i 33 -a 2 -x {1.0 3.1 -1 ------- null}
r -t 0.40232 -s 1 -d 2 -p tcp -e 1040 -c 2 -i 29 -a 2 -x {1.0 3.1 17 ------- null}
+ -t 0.40232 -s 2 -d 3 -p tcp -e 1040 -c 2 -i 29 -a 2 -x {1.0 3.1 17 ------- null}
- -t 0.40232 -s 2 -d 3 -p tcp -e 1040 -c 2 -i 27 -a 2 -x {1.0 3.1 16 ------- null}
h -t 0.40232 -s 2 -d 3 -p tcp -e 1040 -c 2 -i 27 -a 2 -x {1.0 3.1 -1 ------- null}
r -t 0.40296 -s 3 -d 2 -p ack -e 40 -c 2 -i 28 -a 2 -x {3.1 1.0 11 ------- null}
+ -t 0.40296 -s 2 -d 1 -p ack -e 40 -c 2 -i 28 -a 2 -x {3.1 1.0 11 ------- null}
- -t 0.40296 -s 2 -d 1 -p ack -e 40 -c 2 -i 28 -a 2 -x {3.1 1.0 11 ------- null}
h -t 0.40296 -s 2 -d 1 -p ack -e 40 -c 2 -i 28 -a 2 -x {3.1 1.0 -1 ------- null}
r -t 0.4048 -s 2 -d 1 -p ack -e 40 -c 2 -i 25 -a 2 -x {3.1 1.0 10 ------- null}
+ -t 0.4048 -s 1 -d 2 -p tcp -e 1040 -c 2 -i 35 -a 2 -x {1.0 3.1 21 ------- null}
+ -t 0.4048 -s 1 -d 2 -p tcp -e 1040 -c 2 -i 36 -a 2 -x {1.0 3.1 22 ------- null}
- -t 0.4048 -s 1 -d 2 -p tcp -e 1040 -c 2 -i 35 -a 2 -x {1.0 3.1 21 ------- null}
h -t 0.4048 -s 1 -d 2 -p tcp -e 1040 -c 2 -i 35 -a 2 -x {1.0 3.1 -1 ------- null}
r -t 0.40648 -s 1 -d 2 -p tcp -e 1040 -c 2 -i 30 -a 2 -x {1.0 3.1 18 ------- null}
+ -t 0.40648 -s 2 -d 3 -p tcp -e 1040 -c 2 -i 30 -a 2 -x {1.0 3.1 18 ------- null}
r -t 0.4076 -s 2 -d 3 -p tcp -e 1040 -c 2 -i 21 -a 2 -x {1.0 3.1 14 ------- null}
+ -t 0.4076 -s 3 -d 2 -p ack -e 40 -c 2 -i 37 -a 2 -x {3.1 1.0 14 ------- null}
- -t 0.4076 -s 3 -d 2 -p ack -e 40 -c 2 -i 37 -a 2 -x {3.1 1.0 14 ------- null}
h -t 0.4076 -s 3 -d 2 -p ack -e 40 -c 2 -i 37 -a 2 -x {3.1 1.0 -1 ------- null}
- -t 0.40896 -s 1 -d 2 -p tcp -e 1040 -c 2 -i 36 -a 2 -x {1.0 3.1 22 ------- null}
h -t 0.40896 -s 1 -d 2 -p tcp -e 1040 -c 2 -i 36 -a 2 -x {1.0 3.1 -1 ------- null}
r -t 0.41064 -s 1 -d 2 -p tcp -e 1040 -c 2 -i 32 -a 2 -x {1.0 3.1 19 ------- null}
+ -t 0.41064 -s 2 -d 3 -p tcp -e 1040 -c 2 -i 32 -a 2 -x {1.0 3.1 19 ------- null}
- -t 0.41064 -s 2 -d 3 -p tcp -e 1040 -c 2 -i 29 -a 2 -x {1.0 3.1 17 ------- null}
h -t 0.41064 -s 2 -d 3 -p tcp -e 1040 -c 2 -i 29 -a 2 -x {1.0 3.1 -1 ------- null}
r -t 0.41128 -s 3 -d 2 -p ack -e 40 -c 2 -i 31 -a 2 -x {3.1 1.0 12 ------- null}
+ -t 0.41128 -s 2 -d 1 -p ack -e 40 -c 2 -i 31 -a 2 -x {3.1 1.0 12 ------- null}
- -t 0.41128 -s 2 -d 1 -p ack -e 40 -c 2 -i 31 -a 2 -x {3.1 1.0 12 ------- null}
h -t 0.41128 -s 2 -d 1 -p ack -e 40 -c 2 -i 31 -a 2 -x {3.1 1.0 -1 ------- null}
r -t 0.41312 -s 2 -d 1 -p ack -e 40 -c 2 -i 28 -a 2 -x {3.1 1.0 11 ------- null}
+ -t 0.41312 -s 1 -d 2 -p tcp -e 1040 -c 2 -i 38 -a 2 -x {1.0 3.1 23 ------- null}
+ -t 0.41312 -s 1 -d 2 -p tcp -e 1040 -c 2 -i 39 -a 2 -x {1.0 3.1 24 ------- null}
- -t 0.41312 -s 1 -d 2 -p tcp -e 1040 -c 2 -i 38 -a 2 -x {1.0 3.1 23 ------- null}
h -t 0.41312 -s 1 -d 2 -p tcp -e 1040 -c 2 -i 38 -a 2 -x {1.0 3.1 -1 ------- null}
r -t 0.4148 -s 1 -d 2 -p tcp -e 1040 -c 2 -i 33 -a 2 -x {1.0 3.1 20 ------- null}
+ -t 0.4148 -s 2 -d 3 -p tcp -e 1040 -c 2 -i 33 -a 2 -x {1.0 3.1 20 ------- null}
- -t 0.41728 -s 1 -d 2 -p tcp -e 1040 -c 2 -i 39 -a 2 -x {1.0 3.1 24 ------- null}
h -t 0.41728 -s 1 -d 2 -p tcp -e 1040 -c 2 -i 39 -a 2 -x {1.0 3.1 -1 ------- null}
r -t 0.41896 -s 1 -d 2 -p tcp -e 1040 -c 2 -i 35 -a 2 -x {1.0 3.1 21 ------- null}
+ -t 0.41896 -s 2 -d 3 -p tcp -e 1040 -c 2 -i 35 -a 2 -x {1.0 3.1 21 ------- null}
- -t 0.41896 -s 2 -d 3 -p tcp -e 1040 -c 2 -i 30 -a 2 -x {1.0 3.1 18 ------- null}
h -t 0.41896 -s 2 -d 3 -p tcp -e 1040 -c 2 -i 30 -a 2 -x {1.0 3.1 -1 ------- null}
r -t 0.4196 -s 3 -d 2 -p ack -e 40 -c 2 -i 34 -a 2 -x {3.1 1.0 13 ------- null}
+ -t 0.4196 -s 2 -d 1 -p ack -e 40 -c 2 -i 34 -a 2 -x {3.1 1.0 13 ------- null}
- -t 0.4196 -s 2 -d 1 -p ack -e 40 -c 2 -i 34 -a 2 -x {3.1 1.0 13 ------- null}
h -t 0.4196 -s 2 -d 1 -p ack -e 40 -c 2 -i 34 -a 2 -x {3.1 1.0 -1 ------- null}
r -t 0.42144 -s 2 -d 1 -p ack -e 40 -c 2 -i 31 -a 2 -x {3.1 1.0 12 ------- null}
+ -t 0.42144 -s 1 -d 2 -p tcp -e 1040 -c 2 -i 40 -a 2 -x {1.0 3.1 25 ------- null}
+ -t 0.42144 -s 1 -d 2 -p tcp -e 1040 -c 2 -i 41 -a 2 -x {1.0 3.1 26 ------- null}
- -t 0.42144 -s 1 -d 2 -p tcp -e 1040 -c 2 -i 40 -a 2 -x {1.0 3.1 25 ------- null}
h -t 0.42144 -s 1 -d 2 -p tcp -e 1040 -c 2 -i 40 -a 2 -x {1.0 3.1 -1 ------- null}
r -t 0.42232 -s 2 -d 3 -p tcp -e 1040 -c 2 -i 26 -a 2 -x {1.0 3.1 15 ------- null}
+ -t 0.42232 -s 3 -d 2 -p ack -e 40 -c 2 -i 42 -a 2 -x {3.1 1.0 15 ------- null}
- -t 0.42232 -s 3 -d 2 -p ack -e 40 -c 2 -i 42 -a 2 -x {3.1 1.0 15 ------- null}
h -t 0.42232 -s 3 -d 2 -p ack -e 40 -c 2 -i 42 -a 2 -x {3.1 1.0 -1 ------- null}
r -t 0.42312 -s 1 -d 2 -p tcp -e 1040 -c 2 -i 36 -a 2 -x {1.0 3.1 22 ------- null}
+ -t 0.42312 -s 2 -d 3 -p tcp -e 1040 -c 2 -i 36 -a 2 -x {1.0 3.1 22 ------- null}
- -t 0.4256 -s 1 -d 2 -p tcp -e 1040 -c 2 -i 41 -a 2 -x {1.0 3.1 26 ------- null}
h -t 0.4256 -s 1 -d 2 -p tcp -e 1040 -c 2 -i 41 -a 2 -x {1.0 3.1 -1 ------- null}
r -t 0.42728 -s 1 -d 2 -p tcp -e 1040 -c 2 -i 38 -a 2 -x {1.0 3.1 23 ------- null}
+ -t 0.42728 -s 2 -d 3 -p tcp -e 1040 -c 2 -i 38 -a 2 -x {1.0 3.1 23 ------- null}
- -t 0.42728 -s 2 -d 3 -p tcp -e 1040 -c 2 -i 32 -a 2 -x {1.0 3.1 19 ------- null}
h -t 0.42728 -s 2 -d 3 -p tcp -e 1040 -c 2 -i 32 -a 2 -x {1.0 3.1 -1 ------- null}
r -t 0.42792 -s 3 -d 2 -p ack -e 40 -c 2 -i 37 -a 2 -x {3.1 1.0 14 ------- null}
+ -t 0.42792 -s 2 -d 1 -p ack -e 40 -c 2 -i 37 -a 2 -x {3.1 1.0 14 ------- null}
- -t 0.42792 -s 2 -d 1 -p ack -e 40 -c 2 -i 37 -a 2 -x {3.1 1.0 14 ------- null}
h -t 0.42792 -s 2 -d 1 -p ack -e 40 -c 2 -i 37 -a 2 -x {3.1 1.0 -1 ------- null}
r -t 0.42976 -s 2 -d 1 -p ack -e 40 -c 2 -i 34 -a 2 -x {3.1 1.0 13 ------- null}
+ -t 0.42976 -s 1 -d 2 -p tcp -e 1040 -c 2 -i 43 -a 2 -x {1.0 3.1 27 ------- null}
+ -t 0.42976 -s 1 -d 2 -p tcp -e 1040 -c 2 -i 44 -a 2 -x {1.0 3.1 28 ------- null}
- -t 0.42976 -s 1 -d 2 -p tcp -e 1040 -c 2 -i 43 -a 2 -x {1.0 3.1 27 ------- null}
h -t 0.42976 -s 1 -d 2 -p tcp -e 1040 -c 2 -i 43 -a 2 -x {1.0 3.1 -1 ------- null}
r -t 0.43064 -s 2 -d 3 -p tcp -e 1040 -c 2 -i 27 -a 2 -x {1.0 3.1 16 ------- null}
+ -t 0.43064 -s 3 -d 2 -p ack -e 40 -c 2 -i 45 -a 2 -x {3.1 1.0 16 ------- null}
- -t 0.43064 -s 3 -d 2 -p ack -e 40 -c 2 -i 45 -a 2 -x {3.1 1.0 16 ------- null}
h -t 0.43064 -s 3 -d 2 -p ack -e 40 -c 2 -i 45 -a 2 -x {3.1 1.0 -1 ------- null}
r -t 0.43144 -s 1 -d 2 -p tcp -e 1040 -c 2 -i 39 -a 2 -x {1.0 3.1 24 ------- null}
+ -t 0.43144 -s 2 -d 3 -p tcp -e 1040 -c 2 -i 39 -a 2 -x {1.0 3.1 24 ------- null}
- -t 0.43392 -s 1 -d 2 -p tcp -e 1040 -c 2 -i 44 -a 2 -x {1.0 3.1 28 ------- null}
h -t 0.43392 -s 1 -d 2 -p tcp -e 1040 -c 2 -i 44 -a 2 -x {1.0 3.1 -1 ------- null}
r -t 0.4356 -s 1 -d 2 -p tcp -e 1040 -c 2 -i 40 -a 2 -x {1.0 3.1 25 ------- null}
+ -t 0.4356 -s 2 -d 3 -p tcp -e 1040 -c 2 -i 40 -a 2 -x {1.0 3.1 25 ------- null}
d -t 0.4356 -s 2 -d 3 -p tcp -e 1040 -c 2 -i 40 -a 2 -x {1.0 3.1 25 ------- null}
- -t 0.4356 -s 2 -d 3 -p tcp -e 1040 -c 2 -i 33 -a 2 -x {1.0 3.1 20 ------- null}
h -t 0.4356 -s 2 -d 3 -p tcp -e 1040 -c 2 -i 33 -a 2 -x {1.0 3.1 -1 ------- null}
r -t 0.43808 -s 2 -d 1 -p ack -e 40 -c 2 -i 37 -a 2 -x {3.1 1.0 14 ------- null}
+ -t 0.43808 -s 1 -d 2 -p tcp -e 1040 -c 2 -i 46 -a 2 -x {1.0 3.1 29 ------- null}
+ -t 0.43808 -s 1 -d 2 -p tcp -e 1040 -c 2 -i 47 -a 2 -x {1.0 3.1 30 ------- null}
- -t 0.43808 -s 1 -d 2 -p tcp -e 1040 -c 2 -i 46 -a 2 -x {1.0 3.1 29 ------- null}
h -t 0.43808 -s 1 -d 2 -p tcp -e 1040 -c 2 -i 46 -a 2 -x {1.0 3.1 -1 ------- null}
r -t 0.43896 -s 2 -d 3 -p tcp -e 1040 -c 2 -i 29 -a 2 -x {1.0 3.1 17 ------- null}
+ -t 0.43896 -s 3 -d 2 -p ack -e 40 -c 2 -i 48 -a 2 -x {3.1 1.0 17 ------- null}
- -t 0.43896 -s 3 -d 2 -p ack -e 40 -c 2 -i 48 -a 2 -x {3.1 1.0 17 ------- null}
h -t 0.43896 -s 3 -d 2 -p ack -e 40 -c 2 -i 48 -a 2 -x {3.1 1.0 -1 ------- null}
r -t 0.43976 -s 1 -d 2 -p tcp -e 1040 -c 2 -i 41 -a 2 -x {1.0 3.1 26 ------- null}
+ -t 0.43976 -s 2 -d 3 -p tcp -e 1040 -c 2 -i 41 -a 2 -x {1.0 3.1 26 ------- null}
- -t 0.44224 -s 1 -d 2 -p tcp -e 1040 -c 2 -i 47 -a 2 -x {1.0 3.1 30 ------- null}
h -t 0.44224 -s 1 -d 2 -p tcp -e 1040 -c 2 -i 47 -a 2 -x {1.0 3.1 -1 ------- null}
r -t 0.44264 -s 3 -d 2 -p ack -e 40 -c 2 -i 42 -a 2 -x {3.1 1.0 15 ------- null}
+ -t 0.44264 -s 2 -d 1 -p ack -e 40 -c 2 -i 42 -a 2 -x {3.1 1.0 15 ------- null}
- -t 0.44264 -s 2 -d 1 -p ack -e 40 -c 2 -i 42 -a 2 -x {3.1 1.0 15 ------- null}
h -t 0.44264 -s 2 -d 1 -p ack -e 40 -c 2 -i 42 -a 2 -x {3.1 1.0 -1 ------- null}
r -t 0.44392 -s 1 -d 2 -p tcp -e 1040 -c 2 -i 43 -a 2 -x {1.0 3.1 27 ------- null}
+ -t 0.44392 -s 2 -d 3 -p tcp -e 1040 -c 2 -i 43 -a 2 -x {1.0 3.1 27 ------- null}
d -t 0.44392 -s 2 -d 3 -p tcp -e 1040 -c 2 -i 43 -a 2 -x {1.0 3.1 27 ------- null}
- -t 0.44392 -s 2 -d 3 -p tcp -e 1040 -c 2 -i 35 -a 2 -x {1.0 3.1 21 ------- null}
h -t 0.44392 -s 2 -d 3 -p tcp -e 1040 -c 2 -i 35 -a 2 -x {1.0 3.1 -1 ------- null}
r -t 0.44728 -s 2 -d 3 -p tcp -e 1040 -c 2 -i 30 -a 2 -x {1.0 3.1 18 ------- null}
+ -t 0.44728 -s 3 -d 2 -p ack -e 40 -c 2 -i 49 -a 2 -x {3.1 1.0 18 ------- null}
- -t 0.44728 -s 3 -d 2 -p ack -e 40 -c 2 -i 49 -a 2 -x {3.1 1.0 18 ------- null}
h -t 0.44728 -s 3 -d 2 -p ack -e 40 -c 2 -i 49 -a 2 -x {3.1 1.0 -1 ------- null}
r -t 0.44808 -s 1 -d 2 -p tcp -e 1040 -c 2 -i 44 -a 2 -x {1.0 3.1 28 ------- null}
+ -t 0.44808 -s 2 -d 3 -p tcp -e 1040 -c 2 -i 44 -a 2 -x {1.0 3.1 28 ------- null}
r -t 0.45096 -s 3 -d 2 -p ack -e 40 -c 2 -i 45 -a 2 -x {3.1 1.0 16 ------- null}
+ -t 0.45096 -s 2 -d 1 -p ack -e 40 -c 2 -i 45 -a 2 -x {3.1 1.0 16 ------- null}
- -t 0.45096 -s 2 -d 1 -p ack -e 40 -c 2 -i 45 -a 2 -x {3.1 1.0 16 ------- null}
h -t 0.45096 -s 2 -d 1 -p ack -e 40 -c 2 -i 45 -a 2 -x {3.1 1.0 -1 ------- null}
r -t 0.45224 -s 1 -d 2 -p tcp -e 1040 -c 2 -i 46 -a 2 -x {1.0 3.1 29 ------- null}
+ -t 0.45224 -s 2 -d 3 -p tcp -e 1040 -c 2 -i 46 -a 2 -x {1.0 3.1 29 ------- null}
d -t 0.45224 -s 2 -d 3 -p tcp -e 1040 -c 2 -i 46 -a 2 -x {1.0 3.1 29 ------- null}
- -t 0.45224 -s 2 -d 3 -p tcp -e 1040 -c 2 -i 36 -a 2 -x {1.0 3.1 22 ------- null}
h -t 0.45224 -s 2 -d 3 -p tcp -e 1040 -c 2 -i 36 -a 2 -x {1.0 3.1 -1 ------- null}